 variables=x,y,u
 zone J=                   149 ,K=                   512 ,f=point
 0.50000E-02   0.00000E+00   0.27307E-02
 0.15296E-01   0.00000E+00   0.82612E-02
 0.26200E-01   0.00000E+00   0.14107E-01
 0.37742E-01   0.00000E+00   0.20281E-01
 0.49954E-01   0.00000E+00   0.26796E-01
 0.62868E-01   0.00000E+00   0.33665E-01
 0.76516E-01   0.00000E+00   0.40896E-01
 0.90932E-01   0.00000E+00   0.48499E-01
 0.10615E+00   0.00000E+00   0.56479E-01
 0.12221E+00   0.00000E+00   0.64838E-01
 0.13913E+00   0.00000E+00   0.73577E-01
 0.15696E+00   0.00000E+00   0.82692E-01
 0.17573E+00   0.00000E+00   0.92177E-01
 0.19548E+00   0.00000E+00   0.10202E+00
 0.21623E+00   0.00000E+00   0.11222E+00
 0.23802E+00   0.00000E+00   0.12275E+00
 0.26088E+00   0.00000E+00   0.13361E+00
 0.28484E+00   0.00000E+00   0.14478E+00
 0.30993E+00   0.00000E+00   0.15624E+00
 0.33617E+00   0.00000E+00   0.16799E+00
 0.36358E+00   0.00000E+00   0.18001E+00
 0.39219E+00   0.00000E+00   0.19230E+00
 0.42201E+00   0.00000E+00   0.20484E+00
 0.45305E+00   0.00000E+00   0.21762E+00
 0.48532E+00   0.00000E+00   0.23061E+00
 0.51883E+00   0.00000E+00   0.24380E+00
 0.55356E+00   0.00000E+00   0.25712E+00
 0.58952E+00   0.00000E+00   0.27051E+00
 0.62669E+00   0.00000E+00   0.28389E+00
 0.66505E+00   0.00000E+00   0.29715E+00
 0.70458E+00   0.00000E+00   0.31016E+00
 0.74524E+00   0.00000E+00   0.32280E+00
 0.78699E+00   0.00000E+00   0.33492E+00
 0.82979E+00   0.00000E+00   0.34642E+00
 0.87359E+00   0.00000E+00   0.35717E+00
 0.91832E+00   0.00000E+00   0.36713E+00
 0.96392E+00   0.00000E+00   0.37625E+00
 0.10103E+01   0.00000E+00   0.38454E+00
 0.10574E+01   0.00000E+00   0.39206E+00
 0.11052E+01   0.00000E+00   0.39888E+00
 0.11535E+01   0.00000E+00   0.40509E+00
 0.12022E+01   0.00000E+00   0.41083E+00
 0.12513E+01   0.00000E+00   0.41620E+00
 0.13007E+01   0.00000E+00   0.42134E+00
 0.13502E+01   0.00000E+00   0.42635E+00
 0.14000E+01   0.00000E+00   0.43136E+00
 0.14500E+01   0.00000E+00   0.43644E+00
 0.15000E+01   0.00000E+00   0.44166E+00
 0.15512E+01   0.00000E+00   0.44719E+00
 0.16047E+01   0.00000E+00   0.45321E+00
 0.16607E+01   0.00000E+00   0.45978E+00
 0.17193E+01   0.00000E+00   0.46695E+00
 0.17806E+01   0.00000E+00   0.47473E+00
 0.18447E+01   0.00000E+00   0.48309E+00
 0.19118E+01   0.00000E+00   0.49198E+00
 0.19820E+01   0.00000E+00   0.50128E+00
 0.20554E+01   0.00000E+00   0.51081E+00
 0.21321E+01   0.00000E+00   0.52038E+00
 0.22124E+01   0.00000E+00   0.52992E+00
 0.22963E+01   0.00000E+00   0.54018E+00
 0.23841E+01   0.00000E+00   0.55423E+00
 0.24759E+01   0.00000E+00   0.57911E+00
 0.25718E+01   0.00000E+00   0.62427E+00
 0.26721E+01   0.00000E+00   0.69265E+00
 0.27770E+01   0.00000E+00   0.77006E+00
 0.28866E+01   0.00000E+00   0.82909E+00
 0.30012E+01   0.00000E+00   0.85226E+00
 0.31209E+01   0.00000E+00   0.84819E+00
 0.32460E+01   0.00000E+00   0.83864E+00
 0.33768E+01   0.00000E+00   0.83649E+00
 0.35134E+01   0.00000E+00   0.84140E+00
 0.36560E+01   0.00000E+00   0.84880E+00
 0.38051E+01   0.00000E+00   0.85604E+00
 0.39608E+01   0.00000E+00   0.86266E+00
 0.41234E+01   0.00000E+00   0.86900E+00
 0.42931E+01   0.00000E+00   0.87546E+00
 0.44704E+01   0.00000E+00   0.88252E+00
 0.46554E+01   0.00000E+00   0.89069E+00
 0.48485E+01   0.00000E+00   0.90016E+00
 0.50501E+01   0.00000E+00   0.91014E+00
 0.52604E+01   0.00000E+00   0.91879E+00
 0.54798E+01   0.00000E+00   0.92474E+00
 0.57086E+01   0.00000E+00   0.92926E+00
 0.59473E+01   0.00000E+00   0.93364E+00
 0.61962E+01   0.00000E+00   0.93510E+00
 0.64557E+01   0.00000E+00   0.93203E+00
 0.67261E+01   0.00000E+00   0.92629E+00
 0.70079E+01   0.00000E+00   0.92148E+00
 0.73015E+01   0.00000E+00   0.92015E+00
 0.76073E+01   0.00000E+00   0.92189E+00
 0.79258E+01   0.00000E+00   0.92470E+00
 0.82574E+01   0.00000E+00   0.92794E+00
 0.86026E+01   0.00000E+00   0.93238E+00
 0.89617E+01   0.00000E+00   0.93798E+00
 0.93353E+01   0.00000E+00   0.94372E+00
 0.97238E+01   0.00000E+00   0.94876E+00
 0.10128E+02   0.00000E+00   0.95282E+00
 0.10548E+02   0.00000E+00   0.95586E+00
 0.10984E+02   0.00000E+00   0.95857E+00
 0.11437E+02   0.00000E+00   0.96257E+00
 0.11907E+02   0.00000E+00   0.96968E+00
 0.12396E+02   0.00000E+00   0.97849E+00
 0.12902E+02   0.00000E+00   0.98490E+00
 0.13428E+02   0.00000E+00   0.98817E+00
 0.13972E+02   0.00000E+00   0.99190E+00
 0.14537E+02   0.00000E+00   0.99596E+00
 0.15121E+02   0.00000E+00   0.99928E+00
 0.15727E+02   0.00000E+00   0.10013E+01
 0.16353E+02   0.00000E+00   0.10022E+01
 0.17001E+02   0.00000E+00   0.10026E+01
 0.17671E+02   0.00000E+00   0.10027E+01
 0.18363E+02   0.00000E+00   0.10026E+01
 0.19078E+02   0.00000E+00   0.10022E+01
 0.19816E+02   0.00000E+00   0.10015E+01
 0.20577E+02   0.00000E+00   0.10009E+01
 0.21361E+02   0.00000E+00   0.10005E+01
 0.22170E+02   0.00000E+00   0.10003E+01
 0.23002E+02   0.00000E+00   0.10001E+01
 0.23859E+02   0.00000E+00   0.10000E+01
 0.24740E+02   0.00000E+00   0.99993E+00
 0.25645E+02   0.00000E+00   0.99987E+00
 0.26575E+02   0.00000E+00   0.99976E+00
 0.27529E+02   0.00000E+00   0.99963E+00
 0.28507E+02   0.00000E+00   0.99959E+00
 0.29510E+02   0.00000E+00   0.99966E+00
 0.30536E+02   0.00000E+00   0.99972E+00
 0.31586E+02   0.00000E+00   0.99969E+00
 0.32660E+02   0.00000E+00   0.99957E+00
 0.33756E+02   0.00000E+00   0.99950E+00
 0.34875E+02   0.00000E+00   0.99962E+00
 0.36016E+02   0.00000E+00   0.99981E+00
 0.37178E+02   0.00000E+00   0.99988E+00
 0.38361E+02   0.00000E+00   0.99982E+00
 0.39564E+02   0.00000E+00   0.99966E+00
 0.40786E+02   0.00000E+00   0.99961E+00
 0.42026E+02   0.00000E+00   0.99984E+00
 0.43284E+02   0.00000E+00   0.10001E+01
 0.44558E+02   0.00000E+00   0.10001E+01
 0.45847E+02   0.00000E+00   0.10001E+01
 0.47151E+02   0.00000E+00   0.99995E+00
 0.48467E+02   0.00000E+00   0.99971E+00
 0.49795E+02   0.00000E+00   0.10000E+01
 0.51134E+02   0.00000E+00   0.10004E+01
 0.52483E+02   0.00000E+00   0.10005E+01
 0.53838E+02   0.00000E+00   0.10004E+01
 0.55201E+02   0.00000E+00   0.10003E+01
 0.56568E+02   0.00000E+00   0.10001E+01
 0.57940E+02   0.00000E+00   0.99994E+00
 0.59313E+02   0.00000E+00   0.99973E+00
 0.50000E-02   0.18750E+00   0.26663E-02
 0.15296E-01   0.18750E+00   0.80698E-02
 0.26200E-01   0.18750E+00   0.13780E-01
 0.37742E-01   0.18750E+00   0.19811E-01
 0.49954E-01   0.18750E+00   0.26178E-01
 0.62868E-01   0.18750E+00   0.32895E-01
 0.76516E-01   0.18750E+00   0.39973E-01
 0.90932E-01   0.18750E+00   0.47425E-01
 0.10615E+00   0.18750E+00   0.55262E-01
 0.12221E+00   0.18750E+00   0.63492E-01
 0.13913E+00   0.18750E+00   0.72124E-01
 0.15696E+00   0.18750E+00   0.81164E-01
 0.17573E+00   0.18750E+00   0.90619E-01
 0.19548E+00   0.18750E+00   0.10049E+00
 0.21623E+00   0.18750E+00   0.11080E+00
 0.23802E+00   0.18750E+00   0.12154E+00
 0.26088E+00   0.18750E+00   0.13273E+00
 0.28484E+00   0.18750E+00   0.14437E+00
 0.30993E+00   0.18750E+00   0.15649E+00
 0.33617E+00   0.18750E+00   0.16911E+00
 0.36358E+00   0.18750E+00   0.18223E+00
 0.39219E+00   0.18750E+00   0.19589E+00
 0.42201E+00   0.18750E+00   0.21008E+00
 0.45305E+00   0.18750E+00   0.22480E+00
 0.48532E+00   0.18750E+00   0.24004E+00
 0.51883E+00   0.18750E+00   0.25574E+00
 0.55356E+00   0.18750E+00   0.27181E+00
 0.58952E+00   0.18750E+00   0.28813E+00
 0.62669E+00   0.18750E+00   0.30455E+00
 0.66505E+00   0.18750E+00   0.32085E+00
 0.70458E+00   0.18750E+00   0.33680E+00
 0.74524E+00   0.18750E+00   0.35216E+00
 0.78699E+00   0.18750E+00   0.36668E+00
 0.82979E+00   0.18750E+00   0.38013E+00
 0.87359E+00   0.18750E+00   0.39233E+00
 0.91832E+00   0.18750E+00   0.40313E+00
 0.96392E+00   0.18750E+00   0.41248E+00
 0.10103E+01   0.18750E+00   0.42037E+00
 0.10574E+01   0.18750E+00   0.42686E+00
 0.11052E+01   0.18750E+00   0.43207E+00
 0.11535E+01   0.18750E+00   0.43616E+00
 0.12022E+01   0.18750E+00   0.43933E+00
 0.12513E+01   0.18750E+00   0.44178E+00
 0.13007E+01   0.18750E+00   0.44371E+00
 0.13502E+01   0.18750E+00   0.44533E+00
 0.14000E+01   0.18750E+00   0.44683E+00
 0.14500E+01   0.18750E+00   0.44836E+00
 0.15000E+01   0.18750E+00   0.45007E+00
 0.15512E+01   0.18750E+00   0.45212E+00
 0.16047E+01   0.18750E+00   0.45468E+00
 0.16607E+01   0.18750E+00   0.45791E+00
 0.17193E+01   0.18750E+00   0.46196E+00
 0.17806E+01   0.18750E+00   0.46697E+00
 0.18447E+01   0.18750E+00   0.47308E+00
 0.19118E+01   0.18750E+00   0.48039E+00
 0.19820E+01   0.18750E+00   0.48895E+00
 0.20554E+01   0.18750E+00   0.49877E+00
 0.21321E+01   0.18750E+00   0.50984E+00
 0.22124E+01   0.18750E+00   0.52236E+00
 0.22963E+01   0.18750E+00   0.53752E+00
 0.23841E+01   0.18750E+00   0.55892E+00
 0.24759E+01   0.18750E+00   0.59343E+00
 0.25718E+01   0.18750E+00   0.64810E+00
 0.26721E+01   0.18750E+00   0.72120E+00
 0.27770E+01   0.18750E+00   0.79471E+00
 0.28866E+01   0.18750E+00   0.84274E+00
 0.30012E+01   0.18750E+00   0.85483E+00
 0.31209E+01   0.18750E+00   0.84603E+00
 0.32460E+01   0.18750E+00   0.83812E+00
 0.33768E+01   0.18750E+00   0.83953E+00
 0.35134E+01   0.18750E+00   0.84664E+00
 0.36560E+01   0.18750E+00   0.85426E+00
 0.38051E+01   0.18750E+00   0.86006E+00
 0.39608E+01   0.18750E+00   0.86388E+00
 0.41234E+01   0.18750E+00   0.86647E+00
 0.42931E+01   0.18750E+00   0.86902E+00
 0.44704E+01   0.18750E+00   0.87285E+00
 0.46554E+01   0.18750E+00   0.87915E+00
 0.48485E+01   0.18750E+00   0.88850E+00
 0.50501E+01   0.18750E+00   0.90029E+00
 0.52604E+01   0.18750E+00   0.91241E+00
 0.54798E+01   0.18750E+00   0.92243E+00
 0.57086E+01   0.18750E+00   0.93033E+00
 0.59473E+01   0.18750E+00   0.93728E+00
 0.61962E+01   0.18750E+00   0.94053E+00
 0.64557E+01   0.18750E+00   0.93819E+00
 0.67261E+01   0.18750E+00   0.93204E+00
 0.70079E+01   0.18750E+00   0.92594E+00
 0.73015E+01   0.18750E+00   0.92309E+00
 0.76073E+01   0.18750E+00   0.92375E+00
 0.79258E+01   0.18750E+00   0.92605E+00
 0.82574E+01   0.18750E+00   0.92902E+00
 0.86026E+01   0.18750E+00   0.93320E+00
 0.89617E+01   0.18750E+00   0.93848E+00
 0.93353E+01   0.18750E+00   0.94394E+00
 0.97238E+01   0.18750E+00   0.94914E+00
 0.10128E+02   0.18750E+00   0.95389E+00
 0.10548E+02   0.18750E+00   0.95790E+00
 0.10984E+02   0.18750E+00   0.96168E+00
 0.11437E+02   0.18750E+00   0.96669E+00
 0.11907E+02   0.18750E+00   0.97402E+00
 0.12396E+02   0.18750E+00   0.98172E+00
 0.12902E+02   0.18750E+00   0.98636E+00
 0.13428E+02   0.18750E+00   0.98925E+00
 0.13972E+02   0.18750E+00   0.99295E+00
 0.14537E+02   0.18750E+00   0.99684E+00
 0.15121E+02   0.18750E+00   0.99983E+00
 0.15727E+02   0.18750E+00   0.10016E+01
 0.16353E+02   0.18750E+00   0.10023E+01
 0.17001E+02   0.18750E+00   0.10026E+01
 0.17671E+02   0.18750E+00   0.10026E+01
 0.18363E+02   0.18750E+00   0.10025E+01
 0.19078E+02   0.18750E+00   0.10021E+01
 0.19816E+02   0.18750E+00   0.10015E+01
 0.20577E+02   0.18750E+00   0.10008E+01
 0.21361E+02   0.18750E+00   0.10004E+01
 0.22170E+02   0.18750E+00   0.10002E+01
 0.23002E+02   0.18750E+00   0.10001E+01
 0.23859E+02   0.18750E+00   0.99998E+00
 0.24740E+02   0.18750E+00   0.99992E+00
 0.25645E+02   0.18750E+00   0.99986E+00
 0.26575E+02   0.18750E+00   0.99975E+00
 0.27529E+02   0.18750E+00   0.99962E+00
 0.28507E+02   0.18750E+00   0.99958E+00
 0.29510E+02   0.18750E+00   0.99965E+00
 0.30536E+02   0.18750E+00   0.99971E+00
 0.31586E+02   0.18750E+00   0.99969E+00
 0.32660E+02   0.18750E+00   0.99957E+00
 0.33756E+02   0.18750E+00   0.99950E+00
 0.34875E+02   0.18750E+00   0.99962E+00
 0.36016E+02   0.18750E+00   0.99980E+00
 0.37178E+02   0.18750E+00   0.99988E+00
 0.38361E+02   0.18750E+00   0.99982E+00
 0.39564E+02   0.18750E+00   0.99966E+00
 0.40786E+02   0.18750E+00   0.99961E+00
 0.42026E+02   0.18750E+00   0.99983E+00
 0.43284E+02   0.18750E+00   0.10001E+01
 0.44558E+02   0.18750E+00   0.10001E+01
 0.45847E+02   0.18750E+00   0.10001E+01
 0.47151E+02   0.18750E+00   0.99995E+00
 0.48467E+02   0.18750E+00   0.99971E+00
 0.49795E+02   0.18750E+00   0.10000E+01
 0.51134E+02   0.18750E+00   0.10004E+01
 0.52483E+02   0.18750E+00   0.10005E+01
 0.53838E+02   0.18750E+00   0.10004E+01
 0.55201E+02   0.18750E+00   0.10003E+01
 0.56568E+02   0.18750E+00   0.10001E+01
 0.57940E+02   0.18750E+00   0.99994E+00
 0.59313E+02   0.18750E+00   0.99973E+00
 0.50000E-02   0.37500E+00   0.27084E-02
 0.15296E-01   0.37500E+00   0.82037E-02
 0.26200E-01   0.37500E+00   0.14011E-01
 0.37742E-01   0.37500E+00   0.20148E-01
 0.49954E-01   0.37500E+00   0.26632E-01
 0.62868E-01   0.37500E+00   0.33482E-01
 0.76516E-01   0.37500E+00   0.40714E-01
 0.90932E-01   0.37500E+00   0.48349E-01
 0.10615E+00   0.37500E+00   0.56404E-01
 0.12221E+00   0.37500E+00   0.64899E-01
 0.13913E+00   0.37500E+00   0.73855E-01
 0.15696E+00   0.37500E+00   0.83292E-01
 0.17573E+00   0.37500E+00   0.93235E-01
 0.19548E+00   0.37500E+00   0.10371E+00
 0.21623E+00   0.37500E+00   0.11474E+00
 0.23802E+00   0.37500E+00   0.12637E+00
 0.26088E+00   0.37500E+00   0.13863E+00
 0.28484E+00   0.37500E+00   0.15157E+00
 0.30993E+00   0.37500E+00   0.16523E+00
 0.33617E+00   0.37500E+00   0.17966E+00
 0.36358E+00   0.37500E+00   0.19490E+00
 0.39219E+00   0.37500E+00   0.21099E+00
 0.42201E+00   0.37500E+00   0.22795E+00
 0.45305E+00   0.37500E+00   0.24577E+00
 0.48532E+00   0.37500E+00   0.26441E+00
 0.51883E+00   0.37500E+00   0.28378E+00
 0.55356E+00   0.37500E+00   0.30374E+00
 0.58952E+00   0.37500E+00   0.32408E+00
 0.62669E+00   0.37500E+00   0.34454E+00
 0.66505E+00   0.37500E+00   0.36480E+00
 0.70458E+00   0.37500E+00   0.38451E+00
 0.74524E+00   0.37500E+00   0.40329E+00
 0.78699E+00   0.37500E+00   0.42078E+00
 0.82979E+00   0.37500E+00   0.43666E+00
 0.87359E+00   0.37500E+00   0.45066E+00
 0.91832E+00   0.37500E+00   0.46262E+00
 0.96392E+00   0.37500E+00   0.47245E+00
 0.10103E+01   0.37500E+00   0.48015E+00
 0.10574E+01   0.37500E+00   0.48581E+00
 0.11052E+01   0.37500E+00   0.48960E+00
 0.11535E+01   0.37500E+00   0.49173E+00
 0.12022E+01   0.37500E+00   0.49246E+00
 0.12513E+01   0.37500E+00   0.49205E+00
 0.13007E+01   0.37500E+00   0.49079E+00
 0.13502E+01   0.37500E+00   0.48894E+00
 0.14000E+01   0.37500E+00   0.48674E+00
 0.14500E+01   0.37500E+00   0.48444E+00
 0.15000E+01   0.37500E+00   0.48225E+00
 0.15512E+01   0.37500E+00   0.48030E+00
 0.16047E+01   0.37500E+00   0.47877E+00
 0.16607E+01   0.37500E+00   0.47790E+00
 0.17193E+01   0.37500E+00   0.47793E+00
 0.17806E+01   0.37500E+00   0.47914E+00
 0.18447E+01   0.37500E+00   0.48179E+00
 0.19118E+01   0.37500E+00   0.48615E+00
 0.19820E+01   0.37500E+00   0.49246E+00
 0.20554E+01   0.37500E+00   0.50093E+00
 0.21321E+01   0.37500E+00   0.51186E+00
 0.22124E+01   0.37500E+00   0.52593E+00
 0.22963E+01   0.37500E+00   0.54500E+00
 0.23841E+01   0.37500E+00   0.57308E+00
 0.24759E+01   0.37500E+00   0.61608E+00
 0.25718E+01   0.37500E+00   0.67760E+00
 0.26721E+01   0.37500E+00   0.75100E+00
 0.27770E+01   0.37500E+00   0.81605E+00
 0.28866E+01   0.37500E+00   0.85102E+00
 0.30012E+01   0.37500E+00   0.85356E+00
 0.31209E+01   0.37500E+00   0.84287E+00
 0.32460E+01   0.37500E+00   0.83777E+00
 0.33768E+01   0.37500E+00   0.84207E+00
 0.35134E+01   0.37500E+00   0.85068E+00
 0.36560E+01   0.37500E+00   0.85900E+00
 0.38051E+01   0.37500E+00   0.86504E+00
 0.39608E+01   0.37500E+00   0.86835E+00
 0.41234E+01   0.37500E+00   0.86932E+00
 0.42931E+01   0.37500E+00   0.86906E+00
 0.44704E+01   0.37500E+00   0.86923E+00
 0.46554E+01   0.37500E+00   0.87179E+00
 0.48485E+01   0.37500E+00   0.87839E+00
 0.50501E+01   0.37500E+00   0.88949E+00
 0.52604E+01   0.37500E+00   0.90351E+00
 0.54798E+01   0.37500E+00   0.91728E+00
 0.57086E+01   0.37500E+00   0.92904E+00
 0.59473E+01   0.37500E+00   0.93925E+00
 0.61962E+01   0.37500E+00   0.94517E+00
 0.64557E+01   0.37500E+00   0.94447E+00
 0.67261E+01   0.37500E+00   0.93859E+00
 0.70079E+01   0.37500E+00   0.93141E+00
 0.73015E+01   0.37500E+00   0.92688E+00
 0.76073E+01   0.37500E+00   0.92625E+00
 0.79258E+01   0.37500E+00   0.92797E+00
 0.82574E+01   0.37500E+00   0.93069E+00
 0.86026E+01   0.37500E+00   0.93469E+00
 0.89617E+01   0.37500E+00   0.93972E+00
 0.93353E+01   0.37500E+00   0.94484E+00
 0.97238E+01   0.37500E+00   0.94996E+00
 0.10128E+02   0.37500E+00   0.95521E+00
 0.10548E+02   0.37500E+00   0.96013E+00
 0.10984E+02   0.37500E+00   0.96492E+00
 0.11437E+02   0.37500E+00   0.97082E+00
 0.11907E+02   0.37500E+00   0.97816E+00
 0.12396E+02   0.37500E+00   0.98460E+00
 0.12902E+02   0.37500E+00   0.98783E+00
 0.13428E+02   0.37500E+00   0.99051E+00
 0.13972E+02   0.37500E+00   0.99411E+00
 0.14537E+02   0.37500E+00   0.99772E+00
 0.15121E+02   0.37500E+00   0.10003E+01
 0.15727E+02   0.37500E+00   0.10018E+01
 0.16353E+02   0.37500E+00   0.10023E+01
 0.17001E+02   0.37500E+00   0.10025E+01
 0.17671E+02   0.37500E+00   0.10026E+01
 0.18363E+02   0.37500E+00   0.10024E+01
 0.19078E+02   0.37500E+00   0.10020E+01
 0.19816E+02   0.37500E+00   0.10014E+01
 0.20577E+02   0.37500E+00   0.10008E+01
 0.21361E+02   0.37500E+00   0.10004E+01
 0.22170E+02   0.37500E+00   0.10002E+01
 0.23002E+02   0.37500E+00   0.10001E+01
 0.23859E+02   0.37500E+00   0.99996E+00
 0.24740E+02   0.37500E+00   0.99990E+00
 0.25645E+02   0.37500E+00   0.99984E+00
 0.26575E+02   0.37500E+00   0.99974E+00
 0.27529E+02   0.37500E+00   0.99961E+00
 0.28507E+02   0.37500E+00   0.99957E+00
 0.29510E+02   0.37500E+00   0.99964E+00
 0.30536E+02   0.37500E+00   0.99971E+00
 0.31586E+02   0.37500E+00   0.99968E+00
 0.32660E+02   0.37500E+00   0.99956E+00
 0.33756E+02   0.37500E+00   0.99950E+00
 0.34875E+02   0.37500E+00   0.99962E+00
 0.36016E+02   0.37500E+00   0.99980E+00
 0.37178E+02   0.37500E+00   0.99988E+00
 0.38361E+02   0.37500E+00   0.99982E+00
 0.39564E+02   0.37500E+00   0.99966E+00
 0.40786E+02   0.37500E+00   0.99961E+00
 0.42026E+02   0.37500E+00   0.99983E+00
 0.43284E+02   0.37500E+00   0.10001E+01
 0.44558E+02   0.37500E+00   0.10001E+01
 0.45847E+02   0.37500E+00   0.10001E+01
 0.47151E+02   0.37500E+00   0.99995E+00
 0.48467E+02   0.37500E+00   0.99971E+00
 0.49795E+02   0.37500E+00   0.10000E+01
 0.51134E+02   0.37500E+00   0.10004E+01
 0.52483E+02   0.37500E+00   0.10005E+01
 0.53838E+02   0.37500E+00   0.10004E+01
 0.55201E+02   0.37500E+00   0.10003E+01
 0.56568E+02   0.37500E+00   0.10001E+01
 0.57940E+02   0.37500E+00   0.99994E+00
 0.59313E+02   0.37500E+00   0.99973E+00
 0.50000E-02   0.56250E+00   0.28126E-02
 0.15296E-01   0.56250E+00   0.85257E-02
 0.26200E-01   0.56250E+00   0.14564E-01
 0.37742E-01   0.56250E+00   0.20948E-01
 0.49954E-01   0.56250E+00   0.27701E-01
 0.62868E-01   0.56250E+00   0.34845E-01
 0.76516E-01   0.56250E+00   0.42406E-01
 0.90932E-01   0.56250E+00   0.50412E-01
 0.10615E+00   0.56250E+00   0.58891E-01
 0.12221E+00   0.56250E+00   0.67875E-01
 0.13913E+00   0.56250E+00   0.77399E-01
 0.15696E+00   0.56250E+00   0.87500E-01
 0.17573E+00   0.56250E+00   0.98222E-01
 0.19548E+00   0.56250E+00   0.10961E+00
 0.21623E+00   0.56250E+00   0.12172E+00
 0.23802E+00   0.56250E+00   0.13461E+00
 0.26088E+00   0.56250E+00   0.14835E+00
 0.28484E+00   0.56250E+00   0.16301E+00
 0.30993E+00   0.56250E+00   0.17865E+00
 0.33617E+00   0.56250E+00   0.19536E+00
 0.36358E+00   0.56250E+00   0.21318E+00
 0.39219E+00   0.56250E+00   0.23217E+00
 0.42201E+00   0.56250E+00   0.25235E+00
 0.45305E+00   0.56250E+00   0.27368E+00
 0.48532E+00   0.56250E+00   0.29610E+00
 0.51883E+00   0.56250E+00   0.31945E+00
 0.55356E+00   0.56250E+00   0.34350E+00
 0.58952E+00   0.56250E+00   0.36795E+00
 0.62669E+00   0.56250E+00   0.39241E+00
 0.66505E+00   0.56250E+00   0.41643E+00
 0.70458E+00   0.56250E+00   0.43952E+00
 0.74524E+00   0.56250E+00   0.46119E+00
 0.78699E+00   0.56250E+00   0.48098E+00
 0.82979E+00   0.56250E+00   0.49849E+00
 0.87359E+00   0.56250E+00   0.51347E+00
 0.91832E+00   0.56250E+00   0.52575E+00
 0.96392E+00   0.56250E+00   0.53531E+00
 0.10103E+01   0.56250E+00   0.54224E+00
 0.10574E+01   0.56250E+00   0.54674E+00
 0.11052E+01   0.56250E+00   0.54904E+00
 0.11535E+01   0.56250E+00   0.54945E+00
 0.12022E+01   0.56250E+00   0.54825E+00
 0.12513E+01   0.56250E+00   0.54575E+00
 0.13007E+01   0.56250E+00   0.54224E+00
 0.13502E+01   0.56250E+00   0.53798E+00
 0.14000E+01   0.56250E+00   0.53323E+00
 0.14500E+01   0.56250E+00   0.52822E+00
 0.15000E+01   0.56250E+00   0.52319E+00
 0.15512E+01   0.56250E+00   0.51823E+00
 0.16047E+01   0.56250E+00   0.51346E+00
 0.16607E+01   0.56250E+00   0.50916E+00
 0.17193E+01   0.56250E+00   0.50566E+00
 0.17806E+01   0.56250E+00   0.50331E+00
 0.18447E+01   0.56250E+00   0.50250E+00
 0.19118E+01   0.56250E+00   0.50366E+00
 0.19820E+01   0.56250E+00   0.50724E+00
 0.20554E+01   0.56250E+00   0.51377E+00
 0.21321E+01   0.56250E+00   0.52397E+00
 0.22124E+01   0.56250E+00   0.53912E+00
 0.22963E+01   0.56250E+00   0.56162E+00
 0.23841E+01   0.56250E+00   0.59523E+00
 0.24759E+01   0.56250E+00   0.64383E+00
 0.25718E+01   0.56250E+00   0.70704E+00
 0.26721E+01   0.56250E+00   0.77469E+00
 0.27770E+01   0.56250E+00   0.82748E+00
 0.28866E+01   0.56250E+00   0.85010E+00
 0.30012E+01   0.56250E+00   0.84658E+00
 0.31209E+01   0.56250E+00   0.83585E+00
 0.32460E+01   0.56250E+00   0.83206E+00
 0.33768E+01   0.56250E+00   0.83657E+00
 0.35134E+01   0.56250E+00   0.84513E+00
 0.36560E+01   0.56250E+00   0.85437E+00
 0.38051E+01   0.56250E+00   0.86249E+00
 0.39608E+01   0.56250E+00   0.86850E+00
 0.41234E+01   0.56250E+00   0.87193E+00
 0.42931E+01   0.56250E+00   0.87288E+00
 0.44704E+01   0.56250E+00   0.87218E+00
 0.46554E+01   0.56250E+00   0.87164E+00
 0.48485E+01   0.56250E+00   0.87390E+00
 0.50501E+01   0.56250E+00   0.88134E+00
 0.52604E+01   0.56250E+00   0.89424E+00
 0.54798E+01   0.56250E+00   0.90999E+00
 0.57086E+01   0.56250E+00   0.92527E+00
 0.59473E+01   0.56250E+00   0.93908E+00
 0.61962E+01   0.56250E+00   0.94842E+00
 0.64557E+01   0.56250E+00   0.95032E+00
 0.67261E+01   0.56250E+00   0.94560E+00
 0.70079E+01   0.56250E+00   0.93784E+00
 0.73015E+01   0.56250E+00   0.93167E+00
 0.76073E+01   0.56250E+00   0.92960E+00
 0.79258E+01   0.56250E+00   0.93065E+00
 0.82574E+01   0.56250E+00   0.93314E+00
 0.86026E+01   0.56250E+00   0.93700E+00
 0.89617E+01   0.56250E+00   0.94193E+00
 0.93353E+01   0.56250E+00   0.94677E+00
 0.97238E+01   0.56250E+00   0.95164E+00
 0.10128E+02   0.56250E+00   0.95709E+00
 0.10548E+02   0.56250E+00   0.96269E+00
 0.10984E+02   0.56250E+00   0.96833E+00
 0.11437E+02   0.56250E+00   0.97489E+00
 0.11907E+02   0.56250E+00   0.98199E+00
 0.12396E+02   0.56250E+00   0.98713E+00
 0.12902E+02   0.56250E+00   0.98942E+00
 0.13428E+02   0.56250E+00   0.99195E+00
 0.13972E+02   0.56250E+00   0.99533E+00
 0.14537E+02   0.56250E+00   0.99857E+00
 0.15121E+02   0.56250E+00   0.10008E+01
 0.15727E+02   0.56250E+00   0.10019E+01
 0.16353E+02   0.56250E+00   0.10024E+01
 0.17001E+02   0.56250E+00   0.10025E+01
 0.17671E+02   0.56250E+00   0.10025E+01
 0.18363E+02   0.56250E+00   0.10023E+01
 0.19078E+02   0.56250E+00   0.10019E+01
 0.19816E+02   0.56250E+00   0.10013E+01
 0.20577E+02   0.56250E+00   0.10008E+01
 0.21361E+02   0.56250E+00   0.10004E+01
 0.22170E+02   0.56250E+00   0.10002E+01
 0.23002E+02   0.56250E+00   0.10000E+01
 0.23859E+02   0.56250E+00   0.99994E+00
 0.24740E+02   0.56250E+00   0.99988E+00
 0.25645E+02   0.56250E+00   0.99983E+00
 0.26575E+02   0.56250E+00   0.99973E+00
 0.27529E+02   0.56250E+00   0.99960E+00
 0.28507E+02   0.56250E+00   0.99957E+00
 0.29510E+02   0.56250E+00   0.99963E+00
 0.30536E+02   0.56250E+00   0.99970E+00
 0.31586E+02   0.56250E+00   0.99968E+00
 0.32660E+02   0.56250E+00   0.99956E+00
 0.33756E+02   0.56250E+00   0.99949E+00
 0.34875E+02   0.56250E+00   0.99961E+00
 0.36016E+02   0.56250E+00   0.99980E+00
 0.37178E+02   0.56250E+00   0.99987E+00
 0.38361E+02   0.56250E+00   0.99981E+00
 0.39564E+02   0.56250E+00   0.99966E+00
 0.40786E+02   0.56250E+00   0.99960E+00
 0.42026E+02   0.56250E+00   0.99983E+00
 0.43284E+02   0.56250E+00   0.10001E+01
 0.44558E+02   0.56250E+00   0.10001E+01
 0.45847E+02   0.56250E+00   0.10001E+01
 0.47151E+02   0.56250E+00   0.99995E+00
 0.48467E+02   0.56250E+00   0.99971E+00
 0.49795E+02   0.56250E+00   0.10000E+01
 0.51134E+02   0.56250E+00   0.10004E+01
 0.52483E+02   0.56250E+00   0.10005E+01
 0.53838E+02   0.56250E+00   0.10004E+01
 0.55201E+02   0.56250E+00   0.10003E+01
 0.56568E+02   0.56250E+00   0.10001E+01
 0.57940E+02   0.56250E+00   0.99994E+00
 0.59313E+02   0.56250E+00   0.99973E+00
 0.50000E-02   0.75000E+00   0.29314E-02
 0.15296E-01   0.75000E+00   0.88899E-02
 0.26200E-01   0.75000E+00   0.15187E-01
 0.37742E-01   0.75000E+00   0.21847E-01
 0.49954E-01   0.75000E+00   0.28897E-01
 0.62868E-01   0.75000E+00   0.36366E-01
 0.76516E-01   0.75000E+00   0.44286E-01
 0.90932E-01   0.75000E+00   0.52693E-01
 0.10615E+00   0.75000E+00   0.61626E-01
 0.12221E+00   0.75000E+00   0.71128E-01
 0.13913E+00   0.75000E+00   0.81248E-01
 0.15696E+00   0.75000E+00   0.92038E-01
 0.17573E+00   0.75000E+00   0.10356E+00
 0.19548E+00   0.75000E+00   0.11588E+00
 0.21623E+00   0.75000E+00   0.12907E+00
 0.23802E+00   0.75000E+00   0.14321E+00
 0.26088E+00   0.75000E+00   0.15840E+00
 0.28484E+00   0.75000E+00   0.17472E+00
 0.30993E+00   0.75000E+00   0.19228E+00
 0.33617E+00   0.75000E+00   0.21114E+00
 0.36358E+00   0.75000E+00   0.23140E+00
 0.39219E+00   0.75000E+00   0.25309E+00
 0.42201E+00   0.75000E+00   0.27622E+00
 0.45305E+00   0.75000E+00   0.30073E+00
 0.48532E+00   0.75000E+00   0.32649E+00
 0.51883E+00   0.75000E+00   0.35328E+00
 0.55356E+00   0.75000E+00   0.38077E+00
 0.58952E+00   0.75000E+00   0.40851E+00
 0.62669E+00   0.75000E+00   0.43599E+00
 0.66505E+00   0.75000E+00   0.46259E+00
 0.70458E+00   0.75000E+00   0.48769E+00
 0.74524E+00   0.75000E+00   0.51070E+00
 0.78699E+00   0.75000E+00   0.53111E+00
 0.82979E+00   0.75000E+00   0.54858E+00
 0.87359E+00   0.75000E+00   0.56291E+00
 0.91832E+00   0.75000E+00   0.57409E+00
 0.96392E+00   0.75000E+00   0.58228E+00
 0.10103E+01   0.75000E+00   0.58774E+00
 0.10574E+01   0.75000E+00   0.59080E+00
 0.11052E+01   0.75000E+00   0.59182E+00
 0.11535E+01   0.75000E+00   0.59111E+00
 0.12022E+01   0.75000E+00   0.58898E+00
 0.12513E+01   0.75000E+00   0.58571E+00
 0.13007E+01   0.75000E+00   0.58153E+00
 0.13502E+01   0.75000E+00   0.57665E+00
 0.14000E+01   0.75000E+00   0.57128E+00
 0.14500E+01   0.75000E+00   0.56558E+00
 0.15000E+01   0.75000E+00   0.55977E+00
 0.15512E+01   0.75000E+00   0.55390E+00
 0.16047E+01   0.75000E+00   0.54803E+00
 0.16607E+01   0.75000E+00   0.54244E+00
 0.17193E+01   0.75000E+00   0.53742E+00
 0.17806E+01   0.75000E+00   0.53336E+00
 0.18447E+01   0.75000E+00   0.53073E+00
 0.19118E+01   0.75000E+00   0.53005E+00
 0.19820E+01   0.75000E+00   0.53197E+00
 0.20554E+01   0.75000E+00   0.53730E+00
 0.21321E+01   0.75000E+00   0.54713E+00
 0.22124E+01   0.75000E+00   0.56307E+00
 0.22963E+01   0.75000E+00   0.58740E+00
 0.23841E+01   0.75000E+00   0.62276E+00
 0.24759E+01   0.75000E+00   0.67057E+00
 0.25718E+01   0.75000E+00   0.72773E+00
 0.26721E+01   0.75000E+00   0.78373E+00
 0.27770E+01   0.75000E+00   0.82321E+00
 0.28866E+01   0.75000E+00   0.83685E+00
 0.30012E+01   0.75000E+00   0.83063E+00
 0.31209E+01   0.75000E+00   0.81965E+00
 0.32460E+01   0.75000E+00   0.81425E+00
 0.33768E+01   0.75000E+00   0.81592E+00
 0.35134E+01   0.75000E+00   0.82247E+00
 0.36560E+01   0.75000E+00   0.83181E+00
 0.38051E+01   0.75000E+00   0.84252E+00
 0.39608E+01   0.75000E+00   0.85342E+00
 0.41234E+01   0.75000E+00   0.86327E+00
 0.42931E+01   0.75000E+00   0.87079E+00
 0.44704E+01   0.75000E+00   0.87502E+00
 0.46554E+01   0.75000E+00   0.87617E+00
 0.48485E+01   0.75000E+00   0.87632E+00
 0.50501E+01   0.75000E+00   0.87917E+00
 0.52604E+01   0.75000E+00   0.88792E+00
 0.54798E+01   0.75000E+00   0.90257E+00
 0.57086E+01   0.75000E+00   0.91976E+00
 0.59473E+01   0.75000E+00   0.93685E+00
 0.61962E+01   0.75000E+00   0.94995E+00
 0.64557E+01   0.75000E+00   0.95525E+00
 0.67261E+01   0.75000E+00   0.95263E+00
 0.70079E+01   0.75000E+00   0.94504E+00
 0.73015E+01   0.75000E+00   0.93750E+00
 0.76073E+01   0.75000E+00   0.93393E+00
 0.79258E+01   0.75000E+00   0.93423E+00
 0.82574E+01   0.75000E+00   0.93648E+00
 0.86026E+01   0.75000E+00   0.94020E+00
 0.89617E+01   0.75000E+00   0.94511E+00
 0.93353E+01   0.75000E+00   0.94982E+00
 0.97238E+01   0.75000E+00   0.95435E+00
 0.10128E+02   0.75000E+00   0.95967E+00
 0.10548E+02   0.75000E+00   0.96561E+00
 0.10984E+02   0.75000E+00   0.97182E+00
 0.11437E+02   0.75000E+00   0.97877E+00
 0.11907E+02   0.75000E+00   0.98539E+00
 0.12396E+02   0.75000E+00   0.98937E+00
 0.12902E+02   0.75000E+00   0.99118E+00
 0.13428E+02   0.75000E+00   0.99353E+00
 0.13972E+02   0.75000E+00   0.99657E+00
 0.14537E+02   0.75000E+00   0.99935E+00
 0.15121E+02   0.75000E+00   0.10012E+01
 0.15727E+02   0.75000E+00   0.10020E+01
 0.16353E+02   0.75000E+00   0.10023E+01
 0.17001E+02   0.75000E+00   0.10024E+01
 0.17671E+02   0.75000E+00   0.10024E+01
 0.18363E+02   0.75000E+00   0.10022E+01
 0.19078E+02   0.75000E+00   0.10018E+01
 0.19816E+02   0.75000E+00   0.10013E+01
 0.20577E+02   0.75000E+00   0.10007E+01
 0.21361E+02   0.75000E+00   0.10004E+01
 0.22170E+02   0.75000E+00   0.10001E+01
 0.23002E+02   0.75000E+00   0.10000E+01
 0.23859E+02   0.75000E+00   0.99992E+00
 0.24740E+02   0.75000E+00   0.99987E+00
 0.25645E+02   0.75000E+00   0.99981E+00
 0.26575E+02   0.75000E+00   0.99972E+00
 0.27529E+02   0.75000E+00   0.99959E+00
 0.28507E+02   0.75000E+00   0.99956E+00
 0.29510E+02   0.75000E+00   0.99963E+00
 0.30536E+02   0.75000E+00   0.99969E+00
 0.31586E+02   0.75000E+00   0.99967E+00
 0.32660E+02   0.75000E+00   0.99955E+00
 0.33756E+02   0.75000E+00   0.99949E+00
 0.34875E+02   0.75000E+00   0.99961E+00
 0.36016E+02   0.75000E+00   0.99979E+00
 0.37178E+02   0.75000E+00   0.99987E+00
 0.38361E+02   0.75000E+00   0.99981E+00